19
	Energy:      47.5811104
C         -3.89153        6.69494        5.44592
C         -3.65435        5.79799        4.38790
C         -2.51781        4.96396        4.40814
C         -1.65709        5.05148        5.49495
C         -1.89138        5.93977        6.54912
C         -3.00957        6.76466        6.52287
C         -4.53557        5.68938        3.29878
C         -4.27065        4.80492        2.25688
C         -3.13878        4.00930        2.40035
N         -2.25609        4.08515        3.42650
N         -5.22869        4.56245        1.26649
H         -4.76666        7.34005        5.43614
H         -0.78453        4.40364        5.52488
H         -1.19991        5.97984        7.38681
H         -3.19754        7.45703        7.33948
H         -5.43835        6.29308        3.27409
H         -2.89845        3.24838        1.66301
H         -5.84344        5.34717        1.07500
H         -4.86087        4.14150        0.41852
