23
	Energy:     170.8537505
C         -5.20517        4.34241       -0.29223
O         -6.42942        3.63885       -0.55999
C         -6.61857        2.50487        0.26466
C         -5.49546        1.49015        0.04623
C         -4.12012        2.12466        0.28381
C         -3.96117        3.44643       -0.49470
O         -2.82084        4.22894       -0.09110
C         -1.55060        3.60031       -0.28781
C         -0.53063        4.72337       -0.55228
C          0.85694        4.10997       -0.74575
O         -1.17067        2.88635        0.88283
C          1.23215        3.21911        0.44124
O          1.83274        5.15675       -0.87948
C          0.10062        2.21880        0.72272
C          0.33935        1.41414        2.00159
O         -0.68596        0.42164        2.12120
O         -3.13822        1.15899       -0.14911
O         -5.63028        0.35665        0.91959
O         -6.67047        2.87164        1.63618
C         -5.15277        5.55792       -1.23547
O         -6.19191        6.48262       -0.91122
O         -0.86873        5.47697       -1.73039
O          1.47916        4.05388        1.58073
